 hostname is         dlt08.abaxnet
 this is node-proc. number 0 running on node dlt08.abaxnet
 the total number of node-proc. spawned is   1

 ricc2 (dlt08.abaxnet) : TURBOMOLE V6.6( 19125 ) 27 May 2014 at 14:24:19
 Copyright (C) 2014 TURBOMOLE GmbH, Karlsruhe


    2023-03-31 21:45:04.231 



                              R I C C 2 - PROGRAM

                          the quantum chemistry groups
                             at the universities in
                           Karlsruhe, Bochum & Mainz
                                   Germany



   *-----------------------------------------------------------------------*
   |                     program will use  1 thread(s)                     |
   *-----------------------------------------------------------------------*


              +--------------------------------------------------+
              | Atomic coordinate, charge and isotop information |
              +--------------------------------------------------+

                    atomic coordinates            atom    charge  isotop
         -1.25903854   -2.28197016   -0.03015612    c      6.000     0
         -2.55472338   -0.00000083   -0.02879221    c      6.000     0
         -1.25904288    2.28196695   -0.03016999    c      6.000     0
          1.33397593    2.28282469   -0.03272265    c      6.000     0
          2.68642343    0.00000329   -0.03279418    c      6.000     0
          1.33397780   -2.28282267   -0.03270652    c      6.000     0
         -2.30058495   -4.03537191   -0.02713902    h      1.000     0
         -2.30059039    4.03536858   -0.02716440    h      1.000     0
          2.35274324    4.05547592   -0.03591469    h      1.000     0
          2.35275259   -4.05546984   -0.03588303    h      1.000     0
         -5.27845951   -0.00000053   -0.02253990    n      7.000     0
         -6.37968780    2.02722128   -0.01988302    o      8.000     0
         -6.37969227   -2.02722011   -0.01992307    o      8.000     0
          5.25161265   -0.00000032   -0.08820951    n      7.000     0
          6.20017073    1.61336629    0.23199721    h      1.000     0
          6.20016334   -1.61337062    0.23200112    h      1.000     0
 
       center of nuclear mass  :   -1.36491958    0.00000015   -0.02966624
       center of nuclear charge:   -1.22317889    0.00000013   -0.02610899

              +--------------------------------------------------+
              |               basis set information              |
              +--------------------------------------------------+

              we will work with the 1s 3p 5d 7f 9g ... basis set
              ...i.e. with spherical basis functions...

   type   atoms  prim   cont   basis
   ---------------------------------------------------------------------------
    c        6     52     37   def2-TZVPD   [6s3p3d1f|12s6p3d1f]
    h        6     11      9   def2-TZVPD   [3s2p|5s2p]
    n        2     52     37   def2-TZVPD   [6s3p3d1f|12s6p3d1f]
    o        2     55     40   def2-TZVPD   [6s4p3d1f|12s7p3d1f]
   ---------------------------------------------------------------------------
   total:   16    592    430
   ---------------------------------------------------------------------------

   total number of primitive shells          :   74
   total number of contracted shells         :  162
   total number of cartesian basis functions :  490
   total number of SCF-basis functions       :  430



   =========================================================================


     restricted closed shell calculation for the wavefunction models:
               ADC(2)     - Algebraic Diagrammatic Construction to 2. Order (strict)


     global parameters for ricc2 program:

        hard restart (reuse of interm.) :  enabled 
        soft restart (reuse of vectors) :  disabled
        threshold for vector function   :    0.100000E-06
        convergence threshold energy    :    0.100000E-07
        linear dependence threshold     :    0.100000E-13
        global print level              :      1
        maximum number of iterations    :   500
        maximum number DIIS vectors     :    10
        max. dim. of reduced space      :   100
        core memory limit (MB)          :   500
        disk space limit (MB)           :   none


   =========================================================================
     "cartesian on" in $drvopt is ignored by $ricc2

    der. integral neglect threshold  :  0.10E-08
    integral neglect threshold       :  0.68E-12
    integral storage threshold THIZE :  0.10E-04
    integral storage threshold THIME :         5


                  +------------------------------------------+
                  |     Auxiliary basis set information      |
                  +------------------------------------------+

              we will work with the 1s 3p 5d 7f 9g ... basis set
              ...i.e. with spherical basis functions...

   type   atoms  prim   cont   basis
   ---------------------------------------------------------------------------
    c        6     97     92   def2-TZVPD   [9s7p5d4f1g|9s7p6d4f1g]
    h        6     32     24   def2-TZVPD   [5s3p2d|5s4p3d]
    n        2     97     92   def2-TZVPD   [9s7p5d4f1g|9s7p6d4f1g]
    o        2     97     92   def2-TZVPD   [9s7p5d4f1g|9s7p6d4f1g]
   ---------------------------------------------------------------------------
   total:   16   1162   1064
   ---------------------------------------------------------------------------

   total number of primitive shells          :   93
   total number of contracted shells         :  320
   total number of cartesian basis functions : 1306
   total number of SCF-basis functions       : 1064


 symmetry group of the molecule :   c1 

 the group has the following generators :
   c1(z)

    1 symmetry operations found

 there are 1 real representations :   a   

 maximum number of shells which are related by symmetry :  1


 The symmetry information takes   1 MB

*---------------------------------------------------------------------*
|               simplified C1 algorithm will be applied               |
*---------------------------------------------------------------------*
 ==============================================================================
                      COSMO switched on
 ==============================================================================
            ======================================================
                      COSMO settings in RICC2
                   --------------------------
             Solvent charges are equilibrated for ground state
             "cycle" indicates frozen COSMO charges,
             hence no COSMO CPHF contribution included
             COSMO linear response (LR) contribution included
             Outlying Charge Correction (OCC) is performed
             Using epsilon          =     6.253
             Using refractive index =     1.300
            ======================================================
        IMPORTANT NOTICE: The calculation of the solvent contributions will
         need the relaxed densities in general. Therefore the actual COSMO
         energies will be output only at the end of the run. Any energies
         or excitation energies quoted before that are only intermediate
         quantities and should be ignored unless you know what you are doing!

  MOs are in ASCII format !


 reading orbital data $scfmo  from file mos . 

 orbital characterization : scfconv=7
 

         --------------------------------------------------------------
                   checking mo's by calculating trace(D*S)

              number of electrons : 
                 from trace(D*S)         :   71.999999999996
                 from occupation numbers :   72.000000000000

              molecular charge           :    0.000000000000
         --------------------------------------------------------------

 time elapsed for calculating density matrices :   0.021 sec
 all orbitals will be active in the correlation treatment

  ----------------------------------------------------------------------------
  hard_restart flag is disabled because the check sum for the
  molecular orbitals "$chkmos" differs from the reference value:
  reference value:     4986246.77195497    
  computed value :     4986246.77237028    
  relative error :    0.832919042956218E-10
  tolerance      :    0.100000000000000E-11
  the calculation will proceed...
  ----------------------------------------------------------------------------


   Molecular Orbital Statistic:
   ============================

   -----------------------------
   orbitals in total:
   -----------------------------
    frozen occupied :      0
    active occupied :     36
    active virtual  :    394
    frozen virtual  :      0
    all together    :    430
   -----------------------------


     time in riccmos       cpu:  0.19 sec    wall:  0.33 sec    ratio:  0.6

     total memory allocated for calculation of (Q|P)**(-1/2) : 13 MiB


     calculation of (P|Q) ...
     time in lp2sym        cpu:  0.03 sec    wall:  0.03 sec    ratio:  1.0


     calculation of the Cholesky decomposition of (P|Q)**(-1) ...
     time in invmetri      cpu:  0.19 sec    wall:  0.29 sec    ratio:  0.7

   threshold for RMS(d[D]) in SCF was     :  0.10E-07
   integral neglect threshold             :  0.68E-12
   derivative integral neglect threshold  :  0.10E-08


 setting up bound for integral derivative estimation

 increment for numerical differentiation : 0.00050000

   =========================================================================

     Energy of reference wave function is  -489.4179182907000
     Maximum orbital residual is           0.1542229796269E-04


     Number of symmetry-nonredundant auxiliary basis functions:     1064

     Block lengths for integral files:
        frozen occupied (BOI):        0 MiB
        active occupied (BJI):        1 MiB
        active virtual  (BAI):        4 MiB
        frozen virtual  (BGI):        0 MiB
               general  (BTI):        4 MiB

   =========================================================================




   **************************************************************************
   *                                                                        *
   *          OPTIMIZATION OF THE GROUND STATE CLUSTER AMPLITUDES           *
   *                                                                        *
   **************************************************************************


   Iter.   MP2 energy       Norm(Omega)    Norm(t1)  Norm(t2)     cpu    wall
   ...........................................................................
    1   -491.4223724140    0.1616163390     0.00000   0.44534    1.26    1.38
   ...........................................................................


     time in total         cpu:  1 min 16 s  wall:  1 min 23 s  ratio:  0.9


     **********************************************************************
     *                                                                    *
     *   RHF  energy                             :   -489.4179182907      *
     *   MP2 correlation energy                  :     -2.0044541233      *
     *                                                                    *
     *   Final MP2 energy                        :   -491.4223724140      *
     *                                                                    *
     *   Norm of MP1 T2 amplitudes               :      0.4453413658      *
     *                                                                    *
     *   D1 diagnostic                           :      0.0589            *
     *                                                                    *
     **********************************************************************

 Using refractive index n                   =    1.30000000000000     
 Screening function (n**2-1)/(n**2+0.5)     =   0.315068493150685     


 **************************************************************
 *                                                            *
 *    OPTIMIZATION OF THE EXCITED STATE CLUSTER AMPLITUDES    *
 *                                                            *
 **************************************************************


  preoptimize excitation energies/vectors using CCS:

  ==================================================


 ======== LINEAR CC RESPONSE SOLVER ========

    threshold for convergence: 0.10E-02
    maximum number of simultaneous jacoby matrix transformations: 15
                                                
     summary of start vectors generation:
     -------------------------------------------
     type of solution vectors      : RE0
     symmetry                      : a  
     number of vectors requested   :    15
     number of vectors generated   :    15
       -- guessed as rhs/(e_a-e_i) :    15
     -------------------------------------------
                                                

    Iter  #Vectors  time (min)    max. residual 
    --------------------------------------------
 COSMO cphf update
 COSMO cphf update
 COSMO cphf update
 COSMO cphf update
 COSMO cphf update
 COSMO cphf update
 COSMO cphf update
 COSMO cphf update
 COSMO cphf update
 COSMO cphf update
 COSMO cphf update
 COSMO cphf update
 COSMO cphf update
 COSMO cphf update
 COSMO cphf update
      1      15         2.97     0.14E+00  (  1)
 COSMO cphf update
 COSMO cphf update
 COSMO cphf update
 COSMO cphf update
 COSMO cphf update
 COSMO cphf update
 COSMO cphf update
 COSMO cphf update
 COSMO cphf update
 COSMO cphf update
 COSMO cphf update
 COSMO cphf update
 COSMO cphf update
 COSMO cphf update
 COSMO cphf update
      2      15         3.02     0.56E-01  (  9)
 COSMO cphf update
 COSMO cphf update
 COSMO cphf update
 COSMO cphf update
 COSMO cphf update
 COSMO cphf update
 COSMO cphf update
 COSMO cphf update
 COSMO cphf update
 COSMO cphf update
 COSMO cphf update
 COSMO cphf update
 COSMO cphf update
 COSMO cphf update
 COSMO cphf update
      3      15         2.97     0.75E-01  (  7)
 COSMO cphf update
 COSMO cphf update
 COSMO cphf update
 COSMO cphf update
 COSMO cphf update
 COSMO cphf update
 COSMO cphf update
 COSMO cphf update
 COSMO cphf update
 COSMO cphf update
 COSMO cphf update
 COSMO cphf update
 COSMO cphf update
 COSMO cphf update
 COSMO cphf update
      4      15         3.03     0.15E+00  ( 13)
 COSMO cphf update
 COSMO cphf update
 COSMO cphf update
 COSMO cphf update
 COSMO cphf update
 COSMO cphf update
 COSMO cphf update
 COSMO cphf update
 COSMO cphf update
 COSMO cphf update
 COSMO cphf update
 COSMO cphf update
 COSMO cphf update
 COSMO cphf update
 COSMO cphf update
      5      15         3.04     0.16E+00  (  4)
 COSMO cphf update
 COSMO cphf update
 COSMO cphf update
 COSMO cphf update
 COSMO cphf update
 COSMO cphf update
 COSMO cphf update
 COSMO cphf update
 COSMO cphf update
 COSMO cphf update
 COSMO cphf update
 COSMO cphf update
 COSMO cphf update
 COSMO cphf update
 COSMO cphf update
  dimension of red. space became too large.
  try internal restart...
      6      15         3.15     0.88E-01  (  2)
                                                
     summary of start vectors generation:
     -------------------------------------------
     type of solution vectors      : RE0
     symmetry                      : a  
     number of vectors requested   :    15
     number of vectors generated   :    15
       -- restarted from file      :    15
     -------------------------------------------
                                                

    Iter  #Vectors  time (min)    max. residual 
    --------------------------------------------
 COSMO cphf update
 COSMO cphf update
 COSMO cphf update
 COSMO cphf update
 COSMO cphf update
 COSMO cphf update
 COSMO cphf update
 COSMO cphf update
 COSMO cphf update
 COSMO cphf update
 COSMO cphf update
 COSMO cphf update
 COSMO cphf update
 COSMO cphf update
 COSMO cphf update
      7      15         3.01     0.88E-01  (  2)
 COSMO cphf update
 COSMO cphf update
 COSMO cphf update
 COSMO cphf update
 COSMO cphf update
 COSMO cphf update
 COSMO cphf update
 COSMO cphf update
 COSMO cphf update
 COSMO cphf update
 COSMO cphf update
 COSMO cphf update
 COSMO cphf update
      8      13         2.60     0.30E-01  (  2)
 COSMO cphf update
 COSMO cphf update
 COSMO cphf update
 COSMO cphf update
 COSMO cphf update
 COSMO cphf update
 COSMO cphf update
 COSMO cphf update
 COSMO cphf update
 COSMO cphf update
      9      10         2.09     0.72E-02  (  2)
 COSMO cphf update
 COSMO cphf update
 COSMO cphf update
 COSMO cphf update
 COSMO cphf update
     10       5         1.05     0.25E-02  ( 13)
 COSMO cphf update
 COSMO cphf update
 COSMO cphf update
 COSMO cphf update
     11       4         0.89     0.10E-02  ( 13)
 COSMO cphf update
     12       1         0.34     0.75E-03  (  2)
    --------------------------------------------
    converged in 12 iterations

         Total time         28.17 minutes


 ===========================================




 Note that this is the intermediate result of a preoptimization!
 The convergence threshold was  0.1E-02 only!
 COSMO: note that the excitation energies below do not include
        the nonequilibrium contributions yet. These require the
        computation of the relaxed densities. See end of output
        for a final list of corrected excitations.


 +==================================================================+
 | sym | multi | state |          CCS excitation energies           |
 |     |       |       +--------------------------------------------+
 |     |       |       |   Hartree    |     eV       |     cm-1     |
 +==================================================================+
 | a   |   1   |   1   |    0.1841580 |      5.01119 |    40418.013 |
 | a   |   1   |   2   |    0.1959776 |      5.33282 |    43012.117 |
 | a   |   1   |   3   |    0.2050070 |      5.57852 |    44993.831 |
 | a   |   1   |   4   |    0.2108355 |      5.73713 |    46273.047 |
 | a   |   1   |   5   |    0.2300024 |      6.25868 |    50479.690 |
 | a   |   1   |   6   |    0.2473653 |      6.73115 |    54290.417 |
 | a   |   1   |   7   |    0.2580829 |      7.02279 |    56642.644 |
 | a   |   1   |   8   |    0.2596634 |      7.06580 |    56989.522 |
 | a   |   1   |   9   |    0.2621077 |      7.13231 |    57525.999 |
 | a   |   1   |  10   |    0.2662207 |      7.24423 |    58428.694 |
 | a   |   1   |  11   |    0.2795753 |      7.60763 |    61359.676 |
 | a   |   1   |  12   |    0.2831021 |      7.70360 |    62133.725 |
 | a   |   1   |  13   |    0.2861665 |      7.78699 |    62806.283 |
 | a   |   1   |  14   |    0.2973773 |      8.09205 |    65266.781 |
 | a   |   1   |  15   |    0.2975825 |      8.09763 |    65311.812 |
 +==================================================================+




  preoptimize ADC(2) excitation energies/vectors using a quasi linear algorithm:
  ==============================================================================


 ======== LINEAR CC RESPONSE SOLVER ========

    threshold for convergence: 0.10E-02
    maximum number of simultaneous jacoby matrix transformations: 15
                                                
     summary of start vectors generation:
     -------------------------------------------
     type of solution vectors      : RE0
     symmetry                      : a  
     number of vectors requested   :    15
     number of vectors generated   :    15
       -- restarted from file      :    15
     -------------------------------------------
                                                

    Iter  #Vectors  time (min)    max. residual 
    --------------------------------------------
 COSMO cphf update
 COSMO cphf update
 COSMO cphf update
 COSMO cphf update
 COSMO cphf update
 COSMO cphf update
 COSMO cphf update
 COSMO cphf update
 COSMO cphf update
 COSMO cphf update
 COSMO cphf update
 COSMO cphf update
 COSMO cphf update
 COSMO cphf update
 COSMO cphf update
 COSMO cphf update
 COSMO cphf update
 COSMO cphf update
 COSMO cphf update
 COSMO cphf update
 COSMO cphf update
 COSMO cphf update
 COSMO cphf update
 COSMO cphf update
 COSMO cphf update
 COSMO cphf update
 COSMO cphf update
 COSMO cphf update
 COSMO cphf update
 COSMO cphf update
 threshold for this macro iteration:  5.062940859578174E-002
      1      15        27.01     0.93E-01  (  1)
 COSMO cphf update
 COSMO cphf update
 COSMO cphf update
 COSMO cphf update
 COSMO cphf update
 COSMO cphf update
 COSMO cphf update
 COSMO cphf update
 COSMO cphf update
 COSMO cphf update
 COSMO cphf update
 COSMO cphf update
 COSMO cphf update
 COSMO cphf update
 COSMO cphf update
 COSMO cphf update
 ...adapted threshold to:  5.969104161024941E-002
      2       8        14.34     0.40E-01  ( 12)
                                                
     summary of start vectors generation:
     -------------------------------------------
     type of solution vectors      : RE0
     symmetry                      : a  
     number of vectors requested   :    15
     number of vectors generated   :    15
       -- restarted from file      :    15
     -------------------------------------------
                                                

    Iter  #Vectors  time (min)    max. residual 
    --------------------------------------------
 COSMO cphf update
 COSMO cphf update
 COSMO cphf update
 COSMO cphf update
 COSMO cphf update
 COSMO cphf update
 COSMO cphf update
 COSMO cphf update
 COSMO cphf update
 COSMO cphf update
 COSMO cphf update
 COSMO cphf update
 COSMO cphf update
 COSMO cphf update
 COSMO cphf update
 COSMO cphf update
 COSMO cphf update
 COSMO cphf update
 COSMO cphf update
 COSMO cphf update
 COSMO cphf update
 COSMO cphf update
 COSMO cphf update
 COSMO cphf update
 COSMO cphf update
 COSMO cphf update
 COSMO cphf update
 COSMO cphf update
 COSMO cphf update
 COSMO cphf update
 threshold for this macro iteration:  6.842624531616492E-003
      3      15        26.99     0.40E-01  ( 12)
 COSMO cphf update
 COSMO cphf update
 COSMO cphf update
 COSMO cphf update
 COSMO cphf update
 COSMO cphf update
 COSMO cphf update
 COSMO cphf update
 COSMO cphf update
 COSMO cphf update
 COSMO cphf update
 COSMO cphf update
 COSMO cphf update
 COSMO cphf update
 COSMO cphf update
 COSMO cphf update
 COSMO cphf update
 COSMO cphf update
 COSMO cphf update
 COSMO cphf update
 COSMO cphf update
 COSMO cphf update
 COSMO cphf update
 COSMO cphf update
 COSMO cphf update
 COSMO cphf update
 COSMO cphf update
 COSMO cphf update
 COSMO cphf update
 COSMO cphf update
      4      15        27.00     0.15E-01  ( 11)
 COSMO cphf update
 COSMO cphf update
 COSMO cphf update
 COSMO cphf update
 COSMO cphf update
 COSMO cphf update
 COSMO cphf update
 COSMO cphf update
 COSMO cphf update
 COSMO cphf update
 COSMO cphf update
 COSMO cphf update
 COSMO cphf update
 COSMO cphf update
 COSMO cphf update
 COSMO cphf update
 COSMO cphf update
 COSMO cphf update
 COSMO cphf update
 COSMO cphf update
 COSMO cphf update
 COSMO cphf update
 COSMO cphf update
 COSMO cphf update
 COSMO cphf update
 COSMO cphf update
 COSMO cphf update
 COSMO cphf update
      5      14        25.27     0.12E-01  ( 15)
 COSMO cphf update
 COSMO cphf update
 COSMO cphf update
 COSMO cphf update
      6       2         4.01     0.11E-01  ( 14)
 COSMO cphf update
 COSMO cphf update
      7       1         2.30     0.17E-01  ( 14)
 COSMO cphf update
 COSMO cphf update
      8       1         2.31     0.22E-01  ( 14)
 COSMO cphf update
 COSMO cphf update
      9       1         2.31     0.11E-01  ( 14)
 COSMO cphf update
 COSMO cphf update
     10       1         2.29     0.78E-02  ( 13)
 COSMO cphf update
 COSMO cphf update
     11       1         2.30     0.67E-02  ( 15)
                                                
     summary of start vectors generation:
     -------------------------------------------
     type of solution vectors      : RE0
     symmetry                      : a  
     number of vectors requested   :    15
     number of vectors generated   :    15
       -- restarted from file      :    15
     -------------------------------------------
                                                

    Iter  #Vectors  time (min)    max. residual 
    --------------------------------------------
 COSMO cphf update
 COSMO cphf update
 COSMO cphf update
 COSMO cphf update
 COSMO cphf update
 COSMO cphf update
 COSMO cphf update
 COSMO cphf update
 COSMO cphf update
 COSMO cphf update
 COSMO cphf update
 COSMO cphf update
 COSMO cphf update
 COSMO cphf update
 COSMO cphf update
 COSMO cphf update
 COSMO cphf update
 COSMO cphf update
 COSMO cphf update
 COSMO cphf update
 COSMO cphf update
 COSMO cphf update
 COSMO cphf update
 COSMO cphf update
 COSMO cphf update
 COSMO cphf update
 COSMO cphf update
 COSMO cphf update
 COSMO cphf update
 COSMO cphf update
 threshold for this macro iteration:  1.406890094666613E-002
     12      15        26.95     0.75E-02  ( 11)
                                                
     summary of start vectors generation:
     -------------------------------------------
     type of solution vectors      : RE0
     symmetry                      : a  
     number of vectors requested   :    15
     number of vectors generated   :    15
       -- restarted from file      :    15
     -------------------------------------------
                                                

    Iter  #Vectors  time (min)    max. residual 
    --------------------------------------------
 COSMO cphf update
 COSMO cphf update
 COSMO cphf update
 COSMO cphf update
 COSMO cphf update
 COSMO cphf update
 COSMO cphf update
 COSMO cphf update
 COSMO cphf update
 COSMO cphf update
 COSMO cphf update
 COSMO cphf update
 COSMO cphf update
 COSMO cphf update
 COSMO cphf update
 COSMO cphf update
 COSMO cphf update
 COSMO cphf update
 COSMO cphf update
 COSMO cphf update
 COSMO cphf update
 COSMO cphf update
 COSMO cphf update
 COSMO cphf update
 COSMO cphf update
 COSMO cphf update
 COSMO cphf update
 COSMO cphf update
 COSMO cphf update
 COSMO cphf update
 dabs(Rj-Ri):           1          11  0.118718467228472     
 dabs(Ij+Ii):           1          11  5.497293203662387E-004
 dabs(Rj-Ri):           2          11  0.115289051292643     
 dabs(Ij+Ii):           2          11  5.497293203662387E-004
 dabs(Rj-Ri):           3          11  8.997771914988836E-002
 dabs(Ij+Ii):           3          11  5.497293203662387E-004
 dabs(Rj-Ri):           4          11  8.657075572975709E-002
 dabs(Ij+Ii):           4          11  5.497293203662387E-004
 dabs(Rj-Ri):           5          11  5.995820312949018E-002
 dabs(Ij+Ii):           5          11  5.497293203662387E-004
 dabs(Rj-Ri):           6          11  4.513290357027833E-002
 dabs(Ij+Ii):           6          11  5.497293203662387E-004
 dabs(Rj-Ri):           7          11  4.319375763484798E-002
 dabs(Ij+Ii):           7          11  5.497293203662387E-004
 dabs(Rj-Ri):           8          11  3.301046596217394E-002
 dabs(Ij+Ii):           8          11  5.497293203662387E-004
 dabs(Rj-Ri):           9          11  1.987509761588357E-002
 dabs(Ij+Ii):           9          11  5.497293203662387E-004
 dabs(Rj-Ri):          10          11  1.244560992289595E-002
 dabs(Ij+Ii):          10          11  5.497293203662387E-004
 dabs(Rj-Ri):          12          11  0.000000000000000E+000
 dabs(Ij+Ii):          12          11  0.000000000000000E+000
 dabs(Rj-Ri):          13          11  6.026807458386907E-005
 dabs(Ij+Ii):          13          11  5.497293203662387E-004
 dabs(Rj-Ri):          14          11  1.446896432616440E-002
 dabs(Ij+Ii):          14          11  5.497293203662387E-004
 dabs(Rj-Ri):          15          11  1.716559417969854E-002
 dabs(Ij+Ii):          15          11  5.497293203662387E-004
 overlap matrix for complex pair:

              1             2
 
    1     0.02097308    0.02588005
    2     0.02588005    0.14832498
 real eigenvalues of metric:

              1
 
    1     0.01591473
    2     0.15338333
 eigenvectors of metric:

              1             2
 
    1     0.98142938    0.19182383
    2    -0.19182383    0.98142938
 inverse square root of overlap matrix:

              1             2
 
    1     7.72911899   -1.01162162
    2    -1.01162162    2.75107835
 recalculated overlap matrix for complex pair:

              1             2
 
    1     1.00000000    0.00000000
    2     0.00000000    1.00000000
 dabs(Rj-Ri):           1          12  0.118718467228472     
 dabs(Ij+Ii):           1          12  5.497293203662387E-004
 dabs(Rj-Ri):           2          12  0.115289051292643     
 dabs(Ij+Ii):           2          12  5.497293203662387E-004
 dabs(Rj-Ri):           3          12  8.997771914988836E-002
 dabs(Ij+Ii):           3          12  5.497293203662387E-004
 dabs(Rj-Ri):           4          12  8.657075572975709E-002
 dabs(Ij+Ii):           4          12  5.497293203662387E-004
 dabs(Rj-Ri):           5          12  5.995820312949018E-002
 dabs(Ij+Ii):           5          12  5.497293203662387E-004
 dabs(Rj-Ri):           6          12  4.513290357027833E-002
 dabs(Ij+Ii):           6          12  5.497293203662387E-004
 dabs(Rj-Ri):           7          12  4.319375763484798E-002
 dabs(Ij+Ii):           7          12  5.497293203662387E-004
 dabs(Rj-Ri):           8          12  3.301046596217394E-002
 dabs(Ij+Ii):           8          12  5.497293203662387E-004
 dabs(Rj-Ri):           9          12  1.987509761588357E-002
 dabs(Ij+Ii):           9          12  5.497293203662387E-004
 dabs(Rj-Ri):          10          12  1.244560992289595E-002
 dabs(Ij+Ii):          10          12  5.497293203662387E-004
 dabs(Rj-Ri):          11          12  0.000000000000000E+000
 dabs(Ij+Ii):          11          12  0.000000000000000E+000
 dabs(Rj-Ri):          13          12  6.026807458386907E-005
 dabs(Ij+Ii):          13          12  5.497293203662387E-004
 dabs(Rj-Ri):          14          12  1.446896432616440E-002
 dabs(Ij+Ii):          14          12  5.497293203662387E-004
 dabs(Rj-Ri):          15          12  1.716559417969854E-002
 dabs(Ij+Ii):          15          12  5.497293203662387E-004
 overlap matrix for complex pair:

              1             2
 
    1     1.00000000    0.00000000
    2     0.00000000    1.00000000
 real eigenvalues of metric:

              1
 
    1     1.00000000
    2     1.00000000
 eigenvectors of metric:

              1             2
 
    1     0.97452743   -0.22426834
    2     0.22426834    0.97452743
 inverse square root of overlap matrix:

              1             2
 
    1     1.00000000   -0.00000000
    2    -0.00000000    1.00000000
 recalculated overlap matrix for complex pair:

              1             2
 
    1     1.00000000    0.00000000
    2     0.00000000    1.00000000
 warning> found low lying complex root...
 eigenvalues (imaginary parts) in redeig:

              1
 
    1     0.00000000
    2     0.00000000
    3     0.00000000
    4     0.00000000
    5     0.00000000
    6     0.00000000
    7     0.00000000
    8     0.00000000
    9     0.00000000
   10     0.00000000
   11    -0.00054973
   12     0.00054973
   13     0.00000000
   14     0.00000000
   15     0.00000000
 eigenvalues (real parts) in redeig:

              1
 
    1     0.13759545
    2     0.14102487
    3     0.16633620
    4     0.16974317
    5     0.19635572
    6     0.21118102
    7     0.21312016
    8     0.22330346
    9     0.23643882
   10     0.24386831
   11     0.25631392
   12     0.25631392
   13     0.25637419
   14     0.27078289
   15     0.27347952
 threshold for this macro iteration:  2.459261316801020E-003
     13      15        27.04     0.52E-02  ( 11)
 COSMO cphf update
 COSMO cphf update
 dabs(Rj-Ri):           1          11  0.118565722935681     
 dabs(Ij+Ii):           1          11  5.495118857666839E-004
 dabs(Rj-Ri):           2          11  0.115136340433567     
 dabs(Ij+Ii):           2          11  5.495118857666839E-004
 dabs(Rj-Ri):           3          11  8.982497602566122E-002
 dabs(Ij+Ii):           3          11  5.495118857666839E-004
 dabs(Rj-Ri):           4          11  8.641801145324940E-002
 dabs(Ij+Ii):           4          11  5.495118857666839E-004
 dabs(Rj-Ri):           5          11  5.980545883785890E-002
 dabs(Ij+Ii):           5          11  5.495118857666839E-004
 dabs(Rj-Ri):           6          11  4.498016278051162E-002
 dabs(Ij+Ii):           6          11  5.495118857666839E-004
 dabs(Rj-Ri):           7          11  4.304101334520050E-002
 dabs(Ij+Ii):           7          11  5.495118857666839E-004
 dabs(Rj-Ri):           8          11  3.285778240951059E-002
 dabs(Ij+Ii):           8          11  5.495118857666839E-004
 dabs(Rj-Ri):           9          11  1.972232228653367E-002
 dabs(Ij+Ii):           9          11  5.495118857666839E-004
 dabs(Rj-Ri):          10          11  1.229286562972590E-002
 dabs(Ij+Ii):          10          11  5.495118857666839E-004
 dabs(Rj-Ri):          12          11  0.000000000000000E+000
 dabs(Ij+Ii):          12          11  0.000000000000000E+000
 dabs(Rj-Ri):          13          11  2.138258769268653E-004
 dabs(Ij+Ii):          13          11  5.495118857666839E-004
 dabs(Rj-Ri):          14          11  1.462170862907386E-002
 dabs(Ij+Ii):          14          11  5.495118857666839E-004
 dabs(Rj-Ri):          15          11  1.731833830525675E-002
 dabs(Ij+Ii):          15          11  5.495118857666839E-004
 dabs(Rj-Ri):          16          11  6.995915772998662E-002
 dabs(Ij+Ii):          16          11  5.495118857666839E-004
 overlap matrix for complex pair:

              1             2
 
    1     0.01177335   -0.02964697
    2    -0.02964697    1.15981789
 real eigenvalues of metric:

              1
 
    1     0.01100826
    2     1.16058298
 eigenvectors of metric:

              1             2
 
    1     0.99966717   -0.02579810
    2     0.02579810    0.99966717
 inverse square root of overlap matrix:

              1             2
 
    1     9.52532173    0.22186210
    2     0.22186210    0.93396899
 recalculated overlap matrix for complex pair:

              1             2
 
    1     1.00000000   -0.00000000
    2     0.00000000    1.00000000
 dabs(Rj-Ri):           1          12  0.118565722935681     
 dabs(Ij+Ii):           1          12  5.495118857666839E-004
 dabs(Rj-Ri):           2          12  0.115136340433567     
 dabs(Ij+Ii):           2          12  5.495118857666839E-004
 dabs(Rj-Ri):           3          12  8.982497602566122E-002
 dabs(Ij+Ii):           3          12  5.495118857666839E-004
 dabs(Rj-Ri):           4          12  8.641801145324940E-002
 dabs(Ij+Ii):           4          12  5.495118857666839E-004
 dabs(Rj-Ri):           5          12  5.980545883785890E-002
 dabs(Ij+Ii):           5          12  5.495118857666839E-004
 dabs(Rj-Ri):           6          12  4.498016278051162E-002
 dabs(Ij+Ii):           6          12  5.495118857666839E-004
 dabs(Rj-Ri):           7          12  4.304101334520050E-002
 dabs(Ij+Ii):           7          12  5.495118857666839E-004
 dabs(Rj-Ri):           8          12  3.285778240951059E-002
 dabs(Ij+Ii):           8          12  5.495118857666839E-004
 dabs(Rj-Ri):           9          12  1.972232228653367E-002
 dabs(Ij+Ii):           9          12  5.495118857666839E-004
 dabs(Rj-Ri):          10          12  1.229286562972590E-002
 dabs(Ij+Ii):          10          12  5.495118857666839E-004
 dabs(Rj-Ri):          11          12  0.000000000000000E+000
 dabs(Ij+Ii):          11          12  0.000000000000000E+000
 dabs(Rj-Ri):          13          12  2.138258769268653E-004
 dabs(Ij+Ii):          13          12  5.495118857666839E-004
 dabs(Rj-Ri):          14          12  1.462170862907386E-002
 dabs(Ij+Ii):          14          12  5.495118857666839E-004
 dabs(Rj-Ri):          15          12  1.731833830525675E-002
 dabs(Ij+Ii):          15          12  5.495118857666839E-004
 dabs(Rj-Ri):          16          12  6.995915772998662E-002
 dabs(Ij+Ii):          16          12  5.495118857666839E-004
 overlap matrix for complex pair:

              1             2
 
    1     1.00000000    0.00000000
    2    -0.00000000    1.00000000
 real eigenvalues of metric:

              1
 
    1     1.00000000
    2     1.00000000
 eigenvectors of metric:

              1             2
 
    1     0.99894769    0.04586411
    2    -0.04586411    0.99894769
 inverse square root of overlap matrix:

              1             2
 
    1     1.00000000   -0.00000000
    2    -0.00000000    1.00000000
 recalculated overlap matrix for complex pair:

              1             2
 
    1     1.00000000   -0.00000000
    2    -0.00000000    1.00000000
 warning> found low lying complex root...
 eigenvalues (imaginary parts) in redeig:

              1
 
    1     0.00000000
    2     0.00000000
    3     0.00000000
    4     0.00000000
    5     0.00000000
    6     0.00000000
    7     0.00000000
    8     0.00000000
    9     0.00000000
   10     0.00000000
   11    -0.00054951
   12     0.00054951
   13     0.00000000
   14     0.00000000
   15     0.00000000
   16     0.00000000
 eigenvalues (real parts) in redeig:

              1
 
    1     0.13759545
    2     0.14102484
    3     0.16633620
    4     0.16974317
    5     0.19635572
    6     0.21118101
    7     0.21312016
    8     0.22330339
    9     0.23643885
   10     0.24386831
   11     0.25616118
   12     0.25616118
   13     0.25637500
   14     0.27078289
   15     0.27347952
   16     0.32612033
     14       1         2.29     0.56E-02  ( 11)
 COSMO cphf update
 COSMO cphf update
 dabs(Rj-Ri):           1          11  0.118507563635543     
 dabs(Ij+Ii):           1          11  5.338968037189712E-004
 dabs(Rj-Ri):           2          11  0.115078233189833     
 dabs(Ij+Ii):           2          11  5.338968037189712E-004
 dabs(Rj-Ri):           3          11  8.976681750584364E-002
 dabs(Ij+Ii):           3          11  5.338968037189712E-004
 dabs(Rj-Ri):           4          11  8.635985217264783E-002
 dabs(Ij+Ii):           4          11  5.338968037189712E-004
 dabs(Rj-Ri):           5          11  5.974729953967323E-002
 dabs(Ij+Ii):           5          11  5.338968037189712E-004
 dabs(Rj-Ri):           6          11  4.492200631294246E-002
 dabs(Ij+Ii):           6          11  5.338968037189712E-004
 dabs(Rj-Ri):           7          11  4.298285404966232E-002
 dabs(Ij+Ii):           7          11  5.338968037189712E-004
 dabs(Rj-Ri):           8          11  3.279962099303776E-002
 dabs(Ij+Ii):           8          11  5.338968037189712E-004
 dabs(Rj-Ri):           9          11  1.966410082373724E-002
 dabs(Ij+Ii):           9          11  5.338968037189712E-004
 dabs(Rj-Ri):          10          11  1.223470632807080E-002
 dabs(Ij+Ii):          10          11  5.338968037189712E-004
 dabs(Rj-Ri):          12          11  0.000000000000000E+000
 dabs(Ij+Ii):          12          11  0.000000000000000E+000
 dabs(Rj-Ri):          13          11  2.713778496038488E-004
 dabs(Ij+Ii):          13          11  5.338968037189712E-004
 dabs(Rj-Ri):          14          11  1.467986793449921E-002
 dabs(Ij+Ii):          14          11  5.338968037189712E-004
 dabs(Rj-Ri):          15          11  1.737649734000229E-002
 dabs(Ij+Ii):          15          11  5.338968037189712E-004
 dabs(Rj-Ri):          16          11  3.501046408863906E-002
 dabs(Ij+Ii):          16          11  5.338968037189712E-004
 dabs(Rj-Ri):          17          11  0.307500150262813     
 dabs(Ij+Ii):          17          11  5.338968037189712E-004
 overlap matrix for complex pair:

              1             2
 
    1     1.52363385    0.06643178
    2     0.06643178    0.01405772
 real eigenvalues of metric:

              1
 
    1     1.52655167
    2     0.01113990
 eigenvectors of metric:

              1             2
 
    1     0.99903682   -0.04387971
    2     0.04387971    0.99903682
 inverse square root of overlap matrix:

              1             2
 
    1     0.82604890   -0.37986028
    2    -0.37986028    9.45788099
 recalculated overlap matrix for complex pair:

              1             2
 
    1     1.00000000   -0.00000000
    2    -0.00000000    1.00000000
 dabs(Rj-Ri):           1          12  0.118507563635543     
 dabs(Ij+Ii):           1          12  5.338968037189712E-004
 dabs(Rj-Ri):           2          12  0.115078233189833     
 dabs(Ij+Ii):           2          12  5.338968037189712E-004
 dabs(Rj-Ri):           3          12  8.976681750584364E-002
 dabs(Ij+Ii):           3          12  5.338968037189712E-004
 dabs(Rj-Ri):           4          12  8.635985217264783E-002
 dabs(Ij+Ii):           4          12  5.338968037189712E-004
 dabs(Rj-Ri):           5          12  5.974729953967323E-002
 dabs(Ij+Ii):           5          12  5.338968037189712E-004
 dabs(Rj-Ri):           6          12  4.492200631294246E-002
 dabs(Ij+Ii):           6          12  5.338968037189712E-004
 dabs(Rj-Ri):           7          12  4.298285404966232E-002
 dabs(Ij+Ii):           7          12  5.338968037189712E-004
 dabs(Rj-Ri):           8          12  3.279962099303776E-002
 dabs(Ij+Ii):           8          12  5.338968037189712E-004
 dabs(Rj-Ri):           9          12  1.966410082373724E-002
 dabs(Ij+Ii):           9          12  5.338968037189712E-004
 dabs(Rj-Ri):          10          12  1.223470632807080E-002
 dabs(Ij+Ii):          10          12  5.338968037189712E-004
 dabs(Rj-Ri):          11          12  0.000000000000000E+000
 dabs(Ij+Ii):          11          12  0.000000000000000E+000
 dabs(Rj-Ri):          13          12  2.713778496038488E-004
 dabs(Ij+Ii):          13          12  5.338968037189712E-004
 dabs(Rj-Ri):          14          12  1.467986793449921E-002
 dabs(Ij+Ii):          14          12  5.338968037189712E-004
 dabs(Rj-Ri):          15          12  1.737649734000229E-002
 dabs(Ij+Ii):          15          12  5.338968037189712E-004
 dabs(Rj-Ri):          16          12  3.501046408863906E-002
 dabs(Ij+Ii):          16          12  5.338968037189712E-004
 dabs(Rj-Ri):          17          12  0.307500150262813     
 dabs(Ij+Ii):          17          12  5.338968037189712E-004
 overlap matrix for complex pair:

              1             2
 
    1     1.00000000   -0.00000000
    2    -0.00000000    1.00000000
 real eigenvalues of metric:

              1
 
    1     1.00000000
    2     1.00000000
 eigenvectors of metric:

              1             2
 
    1     0.82275236    0.56839999
    2    -0.56839999    0.82275236
 inverse square root of overlap matrix:

              1             2
 
    1     1.00000000    0.00000000
    2     0.00000000    1.00000000
 recalculated overlap matrix for complex pair:

              1             2
 
    1     1.00000000   -0.00000000
    2     0.00000000    1.00000000
 warning> found low lying complex root...
 eigenvalues (imaginary parts) in redeig:

              1
 
    1     0.00000000
    2     0.00000000
    3     0.00000000
    4     0.00000000
    5     0.00000000
    6     0.00000000
    7     0.00000000
    8     0.00000000
    9     0.00000000
   10     0.00000000
   11    -0.00053390
   12     0.00053390
   13     0.00000000
   14     0.00000000
   15     0.00000000
   16     0.00000000
   17     0.00000000
 eigenvalues (real parts) in redeig:

              1
 
    1     0.13759545
    2     0.14102478
    3     0.16633620
    4     0.16974317
    5     0.19635572
    6     0.21118101
    7     0.21312016
    8     0.22330340
    9     0.23643892
   10     0.24386831
   11     0.25610302
   12     0.25610302
   13     0.25637440
   14     0.27078289
   15     0.27347951
   16     0.29111348
   17     0.56360317
     15       1         2.30     0.57E-02  ( 12)
 COSMO cphf update
 COSMO cphf update
 dabs(Rj-Ri):           1          11  0.118482843486513     
 dabs(Ij+Ii):           1          11  5.230664481931884E-004
 dabs(Rj-Ri):           2          11  0.115053519999413     
 dabs(Ij+Ii):           2          11  5.230664481931884E-004
 dabs(Rj-Ri):           3          11  8.974209742979361E-002
 dabs(Ij+Ii):           3          11  5.230664481931884E-004
 dabs(Rj-Ri):           4          11  8.633513204124829E-002
 dabs(Ij+Ii):           4          11  5.230664481931884E-004
 dabs(Rj-Ri):           5          11  5.972257939295617E-002
 dabs(Ij+Ii):           5          11  5.230664481931884E-004
 dabs(Rj-Ri):           6          11  4.489729083776328E-002
 dabs(Ij+Ii):           6          11  5.230664481931884E-004
 dabs(Rj-Ri):           7          11  4.295813390520675E-002
 dabs(Ij+Ii):           7          11  5.230664481931884E-004
 dabs(Rj-Ri):           8          11  3.277489669950853E-002
 dabs(Ij+Ii):           8          11  5.230664481931884E-004
 dabs(Rj-Ri):           9          11  1.963932038604393E-002
 dabs(Ij+Ii):           9          11  5.230664481931884E-004
 dabs(Rj-Ri):          10          11  1.220998617749114E-002
 dabs(Ij+Ii):          10          11  5.230664481931884E-004
 dabs(Rj-Ri):          12          11  0.000000000000000E+000
 dabs(Ij+Ii):          12          11  0.000000000000000E+000
 dabs(Rj-Ri):          13          11  2.962043968534611E-004
 dabs(Ij+Ii):          13          11  5.230664481931884E-004
 dabs(Rj-Ri):          14          11  1.470458805190589E-002
 dabs(Ij+Ii):          14          11  5.230664481931884E-004
 dabs(Rj-Ri):          15          11  1.740121705823927E-002
 dabs(Ij+Ii):          15          11  5.230664481931884E-004
 dabs(Rj-Ri):          16          11  2.497347597553184E-002
 dabs(Ij+Ii):          16          11  5.230664481931884E-004
 dabs(Rj-Ri):          17          11  0.179469118182666     
 dabs(Ij+Ii):          17          11  5.230664481931884E-004
 dabs(Rj-Ri):          18          11  0.906383346851014     
 dabs(Ij+Ii):          18          11  5.230664481931884E-004
 overlap matrix for complex pair:

              1             2
 
    1     0.01535696    0.00772199
    2     0.00772199    0.09724224
 real eigenvalues of metric:

              1
 
    1     0.01463512
    2     0.09796408
 eigenvectors of metric:

              1             2
 
    1     0.99565931    0.09307277
    2    -0.09307277    0.99565931
 inverse square root of overlap matrix:

              1             2
 
    1     8.22219295   -0.46993754
    2    -0.46993754    3.23889752
 recalculated overlap matrix for complex pair:

              1             2
 
    1     1.00000000   -0.00000000
    2    -0.00000000    1.00000000
 dabs(Rj-Ri):           1          12  0.118482843486513     
 dabs(Ij+Ii):           1          12  5.230664481931884E-004
 dabs(Rj-Ri):           2          12  0.115053519999413     
 dabs(Ij+Ii):           2          12  5.230664481931884E-004
 dabs(Rj-Ri):           3          12  8.974209742979361E-002
 dabs(Ij+Ii):           3          12  5.230664481931884E-004
 dabs(Rj-Ri):           4          12  8.633513204124829E-002
 dabs(Ij+Ii):           4          12  5.230664481931884E-004
 dabs(Rj-Ri):           5          12  5.972257939295617E-002
 dabs(Ij+Ii):           5          12  5.230664481931884E-004
 dabs(Rj-Ri):           6          12  4.489729083776328E-002
 dabs(Ij+Ii):           6          12  5.230664481931884E-004
 dabs(Rj-Ri):           7          12  4.295813390520675E-002
 dabs(Ij+Ii):           7          12  5.230664481931884E-004
 dabs(Rj-Ri):           8          12  3.277489669950853E-002
 dabs(Ij+Ii):           8          12  5.230664481931884E-004
 dabs(Rj-Ri):           9          12  1.963932038604393E-002
 dabs(Ij+Ii):           9          12  5.230664481931884E-004
 dabs(Rj-Ri):          10          12  1.220998617749114E-002
 dabs(Ij+Ii):          10          12  5.230664481931884E-004
 dabs(Rj-Ri):          11          12  0.000000000000000E+000
 dabs(Ij+Ii):          11          12  0.000000000000000E+000
 dabs(Rj-Ri):          13          12  2.962043968534611E-004
 dabs(Ij+Ii):          13          12  5.230664481931884E-004
 dabs(Rj-Ri):          14          12  1.470458805190589E-002
 dabs(Ij+Ii):          14          12  5.230664481931884E-004
 dabs(Rj-Ri):          15          12  1.740121705823927E-002
 dabs(Ij+Ii):          15          12  5.230664481931884E-004
 dabs(Rj-Ri):          16          12  2.497347597553184E-002
 dabs(Ij+Ii):          16          12  5.230664481931884E-004
 dabs(Rj-Ri):          17          12  0.179469118182666     
 dabs(Ij+Ii):          17          12  5.230664481931884E-004
 dabs(Rj-Ri):          18          12  0.906383346851014     
 dabs(Ij+Ii):          18          12  5.230664481931884E-004
 overlap matrix for complex pair:

              1             2
 
    1     1.00000000   -0.00000000
    2    -0.00000000    1.00000000
 real eigenvalues of metric:

              1
 
    1     1.00000000
    2     1.00000000
 eigenvectors of metric:

              1             2
 
    1     0.84799198    0.53000905
    2    -0.53000905    0.84799198
 inverse square root of overlap matrix:

              1             2
 
    1     1.00000000    0.00000000
    2     0.00000000    1.00000000
 recalculated overlap matrix for complex pair:

              1             2
 
    1     1.00000000    0.00000000
    2     0.00000000    1.00000000
 warning> found low lying complex root...
 eigenvalues (imaginary parts) in redeig:

              1
 
    1     0.00000000
    2     0.00000000
    3     0.00000000
    4     0.00000000
    5     0.00000000
    6     0.00000000
    7     0.00000000
    8     0.00000000
    9     0.00000000
   10     0.00000000
   11    -0.00052307
   12     0.00052307
   13     0.00000000
   14     0.00000000
   15     0.00000000
   16     0.00000000
   17     0.00000000
   18     0.00000000
 eigenvalues (real parts) in redeig:

              1
 
    1     0.13759545
    2     0.14102478
    3     0.16633620
    4     0.16974317
    5     0.19635572
    6     0.21118101
    7     0.21312016
    8     0.22330340
    9     0.23643898
   10     0.24386831
   11     0.25607830
   12     0.25607830
   13     0.25637450
   14     0.27078289
   15     0.27347951
   16     0.28105177
   17     0.43554742
   18     1.16246164
     16       1         2.30     0.24E-02  ( 11)
                                                
     summary of start vectors generation:
     -------------------------------------------
     type of solution vectors      : RE0
     symmetry                      : a  
     number of vectors requested   :    15
     number of vectors generated   :    15
       -- restarted from file      :    15
     -------------------------------------------
                                                

    Iter  #Vectors  time (min)    max. residual 
    --------------------------------------------
 COSMO cphf update
 COSMO cphf update
 COSMO cphf update
 COSMO cphf update
 COSMO cphf update
 COSMO cphf update
 COSMO cphf update
 COSMO cphf update
 COSMO cphf update
 COSMO cphf update
 COSMO cphf update
 COSMO cphf update
 COSMO cphf update
 COSMO cphf update
 COSMO cphf update
 COSMO cphf update
 COSMO cphf update
 COSMO cphf update
 COSMO cphf update
 COSMO cphf update
 COSMO cphf update
 COSMO cphf update
 COSMO cphf update
 COSMO cphf update
 COSMO cphf update
 COSMO cphf update
 COSMO cphf update
 COSMO cphf update
 COSMO cphf update
 COSMO cphf update
 threshold for this macro iteration:  1.000000000000000E-003
     17      15        27.07     0.12E-02  ( 13)
 COSMO cphf update
 COSMO cphf update
 COSMO cphf update
 COSMO cphf update
     18       2         4.01     0.11E-02  ( 13)
 COSMO cphf update
 COSMO cphf update
     19       1         2.29     0.85E-03  ( 13)
    --------------------------------------------
    converged in 19 iterations

         Total time        230.41 minutes


 ===========================================




 Note that this is the intermediate result of a preoptimization!
 The convergence threshold was  0.1E-02 only!
 COSMO: note that the excitation energies below do not include
        the nonequilibrium contributions yet. These require the
        computation of the relaxed densities. See end of output
        for a final list of corrected excitations.


 +==================================================================+
 | sym | multi | state |          ADC(2) excitation energies        |
 |     |       |       +--------------------------------------------+
 |     |       |       |   Hartree    |     eV       |     cm-1     |
 +==================================================================+
 | a   |   1   |   1   |    0.1375864 |      3.74392 |    30196.730 |
 | a   |   1   |   2   |    0.1410036 |      3.83690 |    30946.707 |
 | a   |   1   |   3   |    0.1663309 |      4.52609 |    36505.408 |
 | a   |   1   |   4   |    0.1697361 |      4.61876 |    37252.776 |
 | a   |   1   |   5   |    0.1963440 |      5.34279 |    43092.521 |
 | a   |   1   |   6   |    0.2111834 |      5.74659 |    46349.395 |
 | a   |   1   |   7   |    0.2131092 |      5.79900 |    46772.058 |
 | a   |   1   |   8   |    0.2232904 |      6.07604 |    49006.574 |
 | a   |   1   |   9   |    0.2364409 |      6.43388 |    51892.770 |
 | a   |   1   |  10   |    0.2438690 |      6.63601 |    53523.064 |
 | a   |   1   |  11   |    0.2555536 |      6.95397 |    56087.532 |
 | a   |   1   |  12   |    0.2563238 |      6.97493 |    56256.580 |
 | a   |   1   |  13   |    0.2563550 |      6.97578 |    56263.428 |
 | a   |   1   |  14   |    0.2707742 |      7.36814 |    59428.078 |
 | a   |   1   |  15   |    0.2734672 |      7.44142 |    60019.117 |
 +==================================================================+





  solve for ADC(2) excitation energies/vectors using a DIIS algorithm:
  =================================================================
                                                
     summary of start vectors generation:
     -------------------------------------------
     type of solution vectors      : RE0
     symmetry                      : a  
     number of vectors requested   :    15
     number of vectors generated   :    15
       -- restarted from file      :    15
     -------------------------------------------
                                                


 ========= DIIS CC RESPONSE SOLVER =========

    threshold for convergence:0.10E-05
    max. nb. of DIIS vectors :      10
    maximum number of simultaneous jacoby matrix transformations: 15

    Iter  #Vectors  time (min)   residual
    --------------------------------------
 COSMO cphf update
 COSMO cphf update
 COSMO cphf update
 COSMO cphf update
 COSMO cphf update
 COSMO cphf update
 COSMO cphf update
 COSMO cphf update
 COSMO cphf update
 COSMO cphf update
 COSMO cphf update
 COSMO cphf update
 COSMO cphf update
 COSMO cphf update
 COSMO cphf update
 COSMO cphf update
 COSMO cphf update
 COSMO cphf update
 COSMO cphf update
 COSMO cphf update
 COSMO cphf update
 COSMO cphf update
 COSMO cphf update
 COSMO cphf update
 COSMO cphf update
 COSMO cphf update
 COSMO cphf update
 COSMO cphf update
 COSMO cphf update
 COSMO cphf update
      1      15        26.99     0.53E-03  ( 15)    0.63E+00
 COSMO cphf update
 COSMO cphf update
 COSMO cphf update
 COSMO cphf update
 COSMO cphf update
 COSMO cphf update
 COSMO cphf update
 COSMO cphf update
 COSMO cphf update
 COSMO cphf update
 COSMO cphf update
 COSMO cphf update
 COSMO cphf update
 COSMO cphf update
 COSMO cphf update
 COSMO cphf update
 COSMO cphf update
 COSMO cphf update
 COSMO cphf update
 COSMO cphf update
 COSMO cphf update
 COSMO cphf update
 COSMO cphf update
 COSMO cphf update
 COSMO cphf update
 COSMO cphf update
 COSMO cphf update
 COSMO cphf update
 COSMO cphf update
 COSMO cphf update
      2      15        27.28     0.51E-03  ( 15)    0.11E-01
 COSMO cphf update
 COSMO cphf update
 COSMO cphf update
 COSMO cphf update
 COSMO cphf update
 COSMO cphf update
 COSMO cphf update
 COSMO cphf update
 COSMO cphf update
 COSMO cphf update
 COSMO cphf update
 COSMO cphf update
 COSMO cphf update
 COSMO cphf update
 COSMO cphf update
 COSMO cphf update
 COSMO cphf update
 COSMO cphf update
 COSMO cphf update
 COSMO cphf update
 COSMO cphf update
 COSMO cphf update
 COSMO cphf update
 COSMO cphf update
 COSMO cphf update
 COSMO cphf update
 COSMO cphf update
 COSMO cphf update
 COSMO cphf update
 COSMO cphf update
      3      15        27.09     0.49E-03  ( 15)    0.21E-01
 COSMO cphf update
 COSMO cphf update
 COSMO cphf update
 COSMO cphf update
 COSMO cphf update
 COSMO cphf update
 COSMO cphf update
 COSMO cphf update
 COSMO cphf update
 COSMO cphf update
 COSMO cphf update
 COSMO cphf update
 COSMO cphf update
 COSMO cphf update
 COSMO cphf update
 COSMO cphf update
 COSMO cphf update
 COSMO cphf update
 COSMO cphf update
 COSMO cphf update
 COSMO cphf update
 COSMO cphf update
 COSMO cphf update
 COSMO cphf update
 COSMO cphf update
 COSMO cphf update
 COSMO cphf update
 COSMO cphf update
 COSMO cphf update
 COSMO cphf update
      4      15        27.09     0.49E-03  ( 15)    0.50E-01
 COSMO cphf update
 COSMO cphf update
 COSMO cphf update
 COSMO cphf update
 COSMO cphf update
 COSMO cphf update
 COSMO cphf update
 COSMO cphf update
 COSMO cphf update
 COSMO cphf update
 COSMO cphf update
 COSMO cphf update
 COSMO cphf update
 COSMO cphf update
 COSMO cphf update
 COSMO cphf update
 COSMO cphf update
 COSMO cphf update
 COSMO cphf update
 COSMO cphf update
 COSMO cphf update
 COSMO cphf update
 COSMO cphf update
 COSMO cphf update
 COSMO cphf update
 COSMO cphf update
 COSMO cphf update
 COSMO cphf update
      5      14        25.38     0.49E-03  ( 15)    0.91E-02
 COSMO cphf update
 COSMO cphf update
 COSMO cphf update
 COSMO cphf update
 COSMO cphf update
 COSMO cphf update
 COSMO cphf update
 COSMO cphf update
 COSMO cphf update
 COSMO cphf update
 COSMO cphf update
 COSMO cphf update
 COSMO cphf update
 COSMO cphf update
 COSMO cphf update
 COSMO cphf update
 COSMO cphf update
 COSMO cphf update
 COSMO cphf update
 COSMO cphf update
 COSMO cphf update
 COSMO cphf update
 COSMO cphf update
 COSMO cphf update
      6      12        21.82     0.49E-03  ( 15)    0.42E-01
 COSMO cphf update
 COSMO cphf update
 COSMO cphf update
 COSMO cphf update
 COSMO cphf update
 COSMO cphf update
 COSMO cphf update
 COSMO cphf update
 COSMO cphf update
 COSMO cphf update
 COSMO cphf update
 COSMO cphf update
 COSMO cphf update
 COSMO cphf update
 COSMO cphf update
 COSMO cphf update
 COSMO cphf update
 COSMO cphf update
 COSMO cphf update
 COSMO cphf update
      7      10        18.41     0.49E-03  ( 15)    0.41E+00
 COSMO cphf update
 COSMO cphf update
 COSMO cphf update
 COSMO cphf update
 COSMO cphf update
 COSMO cphf update
 COSMO cphf update
 COSMO cphf update
 COSMO cphf update
 COSMO cphf update
 COSMO cphf update
 COSMO cphf update
 COSMO cphf update
 COSMO cphf update
 COSMO cphf update
 COSMO cphf update
      8       8        14.40     0.49E-03  ( 15)    0.84E+00
 COSMO cphf update
 COSMO cphf update
 COSMO cphf update
 COSMO cphf update
 COSMO cphf update
 COSMO cphf update
 COSMO cphf update
 COSMO cphf update
 COSMO cphf update
 COSMO cphf update
 COSMO cphf update
 COSMO cphf update
 COSMO cphf update
 COSMO cphf update
 COSMO cphf update
 COSMO cphf update
      9       8        14.37     0.49E-03  ( 15)    0.11E+01
 COSMO cphf update
 COSMO cphf update
 COSMO cphf update
 COSMO cphf update
 COSMO cphf update
 COSMO cphf update
 COSMO cphf update
 COSMO cphf update
 COSMO cphf update
 COSMO cphf update
 COSMO cphf update
 COSMO cphf update
     10       6        10.87     0.48E-03  ( 15)    0.10E+01
 COSMO cphf update
 COSMO cphf update
 COSMO cphf update
 COSMO cphf update
 COSMO cphf update
 COSMO cphf update
 COSMO cphf update
 COSMO cphf update
 COSMO cphf update
 COSMO cphf update
     11       5         9.17     0.46E-03  ( 15)    0.10E+01
 COSMO cphf update
 COSMO cphf update
 COSMO cphf update
 COSMO cphf update
 COSMO cphf update
 COSMO cphf update
 COSMO cphf update
 COSMO cphf update
 COSMO cphf update
 COSMO cphf update
     12       5         9.25     0.44E-03  ( 15)    0.43E+00
 COSMO cphf update
 COSMO cphf update
 COSMO cphf update
 COSMO cphf update
 COSMO cphf update
 COSMO cphf update
 COSMO cphf update
 COSMO cphf update
 COSMO cphf update
 COSMO cphf update
     13       5         9.21     0.43E-03  ( 15)    0.46E+00
 COSMO cphf update
 COSMO cphf update
 COSMO cphf update
 COSMO cphf update
 COSMO cphf update
 COSMO cphf update
 COSMO cphf update
 COSMO cphf update
 COSMO cphf update
 COSMO cphf update
     14       5         9.24     0.43E-03  ( 15)    0.65E-02
 COSMO cphf update
 COSMO cphf update
 COSMO cphf update
 COSMO cphf update
 COSMO cphf update
 COSMO cphf update
 COSMO cphf update
 COSMO cphf update
 COSMO cphf update
 COSMO cphf update
     15       5         9.21     0.43E-03  ( 15)    0.67E-02
 COSMO cphf update
 COSMO cphf update
 COSMO cphf update
 COSMO cphf update
 COSMO cphf update
 COSMO cphf update
 COSMO cphf update
 COSMO cphf update
 COSMO cphf update
 COSMO cphf update
     16       5         9.21     0.43E-03  ( 15)    0.71E-02
 COSMO cphf update
 COSMO cphf update
 COSMO cphf update
 COSMO cphf update
 COSMO cphf update
 COSMO cphf update
 COSMO cphf update
 COSMO cphf update
 COSMO cphf update
 COSMO cphf update
     17       5         9.20     0.43E-03  ( 15)    0.66E-02
 COSMO cphf update
 COSMO cphf update
 COSMO cphf update
 COSMO cphf update
 COSMO cphf update
 COSMO cphf update
 COSMO cphf update
 COSMO cphf update
 COSMO cphf update
 COSMO cphf update
     18       5         9.22     0.43E-03  ( 15)    0.59E-02
 COSMO cphf update
 COSMO cphf update
 COSMO cphf update
 COSMO cphf update
 COSMO cphf update
 COSMO cphf update
 COSMO cphf update
 COSMO cphf update
     19       4         7.48     0.42E-03  ( 15)    0.56E-02
 COSMO cphf update
 COSMO cphf update
 COSMO cphf update
 COSMO cphf update
 COSMO cphf update
 COSMO cphf update
 COSMO cphf update
 COSMO cphf update
     20       4         7.50     0.42E-03  ( 15)    0.54E-02
 COSMO cphf update
 COSMO cphf update
 COSMO cphf update
 COSMO cphf update
 COSMO cphf update
 COSMO cphf update
     21       3         5.71     0.41E-03  ( 15)    0.56E-02
 COSMO cphf update
 COSMO cphf update
 COSMO cphf update
 COSMO cphf update
     22       2         3.99     0.40E-03  ( 15)    0.56E-02
 COSMO cphf update
 COSMO cphf update
 COSMO cphf update
 COSMO cphf update
     23       2         4.00     0.40E-03  ( 15)    0.56E-02
 COSMO cphf update
 COSMO cphf update
 COSMO cphf update
 COSMO cphf update
     24       2      2936.56     0.40E-03  ( 15)    0.56E-02
 COSMO cphf update
 COSMO cphf update
 COSMO cphf update
 COSMO cphf update
     25       2         4.04     0.38E-03  ( 15)    0.56E-02
 COSMO cphf update
 COSMO cphf update
 COSMO cphf update
 COSMO cphf update
     26       2         4.06     0.36E-03  ( 15)    0.55E-02
 COSMO cphf update
 COSMO cphf update
 COSMO cphf update
 COSMO cphf update
     27       2         4.04     0.33E-03  ( 15)    0.56E-02
 COSMO cphf update
 COSMO cphf update
 COSMO cphf update
 COSMO cphf update
     28       2         4.02     0.30E-03  ( 15)    0.56E-02
 COSMO cphf update
 COSMO cphf update
 COSMO cphf update
 COSMO cphf update
     29       2         4.03     0.27E-03  ( 15)    0.63E-02
 COSMO cphf update
 COSMO cphf update
 COSMO cphf update
 COSMO cphf update
     30       2         4.05     0.26E-03  ( 15)    0.56E-02
 COSMO cphf update
 COSMO cphf update
 COSMO cphf update
 COSMO cphf update
     31       2         4.04     0.25E-03  ( 15)    0.56E-02
 COSMO cphf update
 COSMO cphf update
 COSMO cphf update
 COSMO cphf update
     32       2         4.02     0.24E-03  ( 15)    0.55E-02
 COSMO cphf update
 COSMO cphf update
 COSMO cphf update
 COSMO cphf update
     33       2         4.02     0.23E-03  ( 15)    0.56E-02
 COSMO cphf update
 COSMO cphf update
 COSMO cphf update
 COSMO cphf update
     34       2         4.04     0.21E-03  ( 15)    0.56E-02
 COSMO cphf update
 COSMO cphf update
 COSMO cphf update
 COSMO cphf update
     35       2         4.03     0.17E-03  ( 15)    0.55E-02
 COSMO cphf update
 COSMO cphf update
 COSMO cphf update
 COSMO cphf update
     36       2         4.06     0.14E-03  ( 15)    0.56E-02
 COSMO cphf update
 COSMO cphf update
 COSMO cphf update
 COSMO cphf update
     37       2         4.02     0.11E-03  ( 15)    0.56E-02
 COSMO cphf update
 COSMO cphf update
 COSMO cphf update
 COSMO cphf update
     38       2         4.05     0.95E-04  ( 15)    0.56E-02
 COSMO cphf update
 COSMO cphf update
 COSMO cphf update
 COSMO cphf update
     39       2         4.05     0.90E-04  ( 15)    0.56E-02
 COSMO cphf update
 COSMO cphf update
 COSMO cphf update
 COSMO cphf update
     40       2         4.04     0.86E-04  ( 15)    0.56E-02
 COSMO cphf update
 COSMO cphf update
 COSMO cphf update
 COSMO cphf update
     41       2         4.04     0.84E-04  ( 15)    0.56E-02
 COSMO cphf update
 COSMO cphf update
 COSMO cphf update
 COSMO cphf update
     42       2         4.01     0.84E-04  ( 15)    0.56E-02
 COSMO cphf update
 COSMO cphf update
 COSMO cphf update
 COSMO cphf update
     43       2         4.02     0.84E-04  ( 15)    0.56E-02
 COSMO cphf update
 COSMO cphf update
 COSMO cphf update
 COSMO cphf update
     44       2         4.05     0.84E-04  ( 15)    0.56E-02
 COSMO cphf update
 COSMO cphf update
 COSMO cphf update
 COSMO cphf update
     45       2         4.04     0.84E-04  ( 15)    0.56E-02
 COSMO cphf update
 COSMO cphf update
 COSMO cphf update
 COSMO cphf update
     46       2         4.05     0.84E-04  ( 15)    0.56E-02
 COSMO cphf update
 COSMO cphf update
 COSMO cphf update
 COSMO cphf update
     47       2         4.01     0.84E-04  ( 15)    0.56E-02
 COSMO cphf update
 COSMO cphf update
 COSMO cphf update
 COSMO cphf update
     48       2         4.03     0.83E-04  ( 15)    0.56E-02
 COSMO cphf update
 COSMO cphf update
 COSMO cphf update
 COSMO cphf update
     49       2         4.05     0.83E-04  ( 15)    0.56E-02
 COSMO cphf update
 COSMO cphf update
 COSMO cphf update
 COSMO cphf update
     50       2         4.04     0.83E-04  ( 15)    0.56E-02
 COSMO cphf update
 COSMO cphf update
 COSMO cphf update
 COSMO cphf update
     51       2         4.05     0.83E-04  ( 15)    0.56E-02
 COSMO cphf update
 COSMO cphf update
 COSMO cphf update
 COSMO cphf update
     52       2         4.03     0.83E-04  ( 15)    0.56E-02
 COSMO cphf update
 COSMO cphf update
 COSMO cphf update
 COSMO cphf update
     53       2         4.07     0.82E-04  ( 15)    0.56E-02
 COSMO cphf update
 COSMO cphf update
 COSMO cphf update
 COSMO cphf update
     54       2         4.03     0.80E-04  ( 15)    0.56E-02
 COSMO cphf update
 COSMO cphf update
 COSMO cphf update
 COSMO cphf update
     55       2         4.03     0.78E-04  ( 15)    0.55E-02
 COSMO cphf update
 COSMO cphf update
 COSMO cphf update
 COSMO cphf update
     56       2         4.08     0.76E-04  ( 15)    0.56E-02
 COSMO cphf update
 COSMO cphf update
 COSMO cphf update
 COSMO cphf update
     57       2         4.04     0.73E-04  ( 15)    0.56E-02
 COSMO cphf update
 COSMO cphf update
 COSMO cphf update
 COSMO cphf update
     58       2         4.08     0.73E-04  ( 15)    0.55E-02
 COSMO cphf update
 COSMO cphf update
 COSMO cphf update
 COSMO cphf update
     59       2         4.07     0.72E-04  ( 15)    0.56E-02
 COSMO cphf update
 COSMO cphf update
 COSMO cphf update
 COSMO cphf update
     60       2         4.05     0.72E-04  ( 15)    0.56E-02
 COSMO cphf update
 COSMO cphf update
 COSMO cphf update
 COSMO cphf update
     61       2         4.01     0.72E-04  ( 15)    0.56E-02
 COSMO cphf update
 COSMO cphf update
 COSMO cphf update
 COSMO cphf update
     62       2         4.11     0.72E-04  ( 15)    0.56E-02
 COSMO cphf update
 COSMO cphf update
     63       1         2.43     0.72E-04  ( 15)    0.56E-02
 COSMO cphf update
 COSMO cphf update
     64       1         2.31     0.72E-04  ( 15)    0.56E-02
 COSMO cphf update
 COSMO cphf update
     65       1         2.31     0.73E-04  ( 15)    0.56E-02
 COSMO cphf update
 COSMO cphf update
     66       1         2.31     0.73E-04  ( 15)    0.56E-02
 COSMO cphf update
 COSMO cphf update
     67       1         2.33     0.74E-04  ( 15)    0.56E-02
 COSMO cphf update
 COSMO cphf update
     68       1         2.30     0.75E-04  ( 15)    0.56E-02
 COSMO cphf update
 COSMO cphf update
     69       1         2.30     0.75E-04  ( 15)    0.55E-02
 COSMO cphf update
 COSMO cphf update
     70       1         2.29     0.76E-04  ( 15)    0.56E-02
 COSMO cphf update
 COSMO cphf update
     71       1         2.31     0.76E-04  ( 15)    0.56E-02
 COSMO cphf update
 COSMO cphf update
     72       1         2.31     0.77E-04  ( 15)    0.56E-02
 COSMO cphf update
 COSMO cphf update
     73       1         2.31     0.77E-04  ( 15)    0.56E-02
 COSMO cphf update
 COSMO cphf update
     74       1         2.30     0.77E-04  ( 15)    0.56E-02
 COSMO cphf update
 COSMO cphf update
     75       1         2.33     0.77E-04  ( 15)    0.56E-02
 COSMO cphf update
 COSMO cphf update
     76       1         2.31     0.77E-04  ( 15)    0.56E-02
 COSMO cphf update
 COSMO cphf update
     77       1         2.30     0.78E-04  ( 15)    0.56E-02
 COSMO cphf update
 COSMO cphf update
     78       1         2.31     0.77E-04  ( 15)    0.56E-02
 COSMO cphf update
 COSMO cphf update
     79       1         2.30     0.76E-04  ( 15)    0.55E-02
 COSMO cphf update
 COSMO cphf update
     80       1         2.31     0.77E-04  ( 15)    0.56E-02
 COSMO cphf update
 COSMO cphf update
     81       1         2.31     0.78E-04  ( 15)    0.56E-02
 COSMO cphf update
 COSMO cphf update
     82       1         2.31     0.75E-04  ( 15)    0.56E-02
 COSMO cphf update
 COSMO cphf update
     83       1         2.31     0.74E-04  ( 15)    0.56E-02
 COSMO cphf update
 COSMO cphf update
     84       1         2.31     0.74E-04  ( 15)    0.56E-02
 COSMO cphf update
 COSMO cphf update
     85       1         2.30     0.74E-04  ( 15)    0.56E-02
 COSMO cphf update
 COSMO cphf update
     86       1         2.31     0.73E-04  ( 15)    0.56E-02
 COSMO cphf update
 COSMO cphf update
     87       1         2.30     0.72E-04  ( 15)    0.56E-02
 COSMO cphf update
 COSMO cphf update
     88       1         2.31     0.67E-04  ( 15)    0.55E-02
 COSMO cphf update
 COSMO cphf update
     89       1         2.31     0.65E-04  ( 15)    0.56E-02
 COSMO cphf update
 COSMO cphf update
     90       1         2.30     0.62E-04  ( 15)    0.56E-02
 COSMO cphf update
 COSMO cphf update
     91       1         2.31     0.58E-04  ( 15)    0.56E-02
 COSMO cphf update
 COSMO cphf update
     92       1         2.31     0.57E-04  ( 15)    0.56E-02
 COSMO cphf update
 COSMO cphf update
     93       1         2.30     0.54E-04  ( 15)    0.56E-02
 COSMO cphf update
 COSMO cphf update
     94       1         2.36     0.51E-04  ( 15)    0.56E-02
 COSMO cphf update
 COSMO cphf update
     95       1         2.32     0.50E-04  ( 15)    0.56E-02
 COSMO cphf update
 COSMO cphf update
     96       1         2.31     0.48E-04  ( 15)    0.56E-02
 COSMO cphf update
 COSMO cphf update
     97       1         2.30     0.48E-04  ( 15)    0.56E-02
 COSMO cphf update
 COSMO cphf update
     98       1         2.34     0.48E-04  ( 15)    0.56E-02
 COSMO cphf update
 COSMO cphf update
     99       1         2.31     0.48E-04  ( 15)    0.56E-02
 COSMO cphf update
 COSMO cphf update
    100       1         2.29     0.48E-04  ( 15)    0.56E-02
 COSMO cphf update
 COSMO cphf update
    101       1         2.30     0.48E-04  ( 15)    0.56E-02
 COSMO cphf update
 COSMO cphf update
    102       1         2.31     0.48E-04  ( 15)    0.56E-02
 COSMO cphf update
 COSMO cphf update
    103       1         2.32     0.47E-04  ( 15)    0.56E-02
 COSMO cphf update
 COSMO cphf update
    104       1         2.31     0.47E-04  ( 15)    0.56E-02
 COSMO cphf update
 COSMO cphf update
    105       1         2.31     0.47E-04  ( 15)    0.56E-02
 COSMO cphf update
 COSMO cphf update
    106       1         2.30     0.47E-04  ( 15)    0.56E-02
 COSMO cphf update
 COSMO cphf update
    107       1         2.30     0.46E-04  ( 15)    0.56E-02
 COSMO cphf update
 COSMO cphf update
    108       1         2.30     0.46E-04  ( 15)    0.56E-02
 COSMO cphf update
 COSMO cphf update
    109       1         2.30     0.46E-04  ( 15)    0.56E-02
 COSMO cphf update
 COSMO cphf update
    110       1         2.32     0.46E-04  ( 15)    0.56E-02
 COSMO cphf update
 COSMO cphf update
    111       1         2.31     0.46E-04  ( 15)    0.56E-02
 COSMO cphf update
 COSMO cphf update
    112       1         2.31     0.46E-04  ( 15)    0.56E-02
 COSMO cphf update
 COSMO cphf update
    113       1         2.30     0.45E-04  ( 15)    0.56E-02
 COSMO cphf update
 COSMO cphf update
    114       1         2.30     0.41E-04  ( 15)    0.56E-02
 COSMO cphf update
 COSMO cphf update
    115       1         2.30     0.38E-04  ( 15)    0.56E-02
 COSMO cphf update
 COSMO cphf update
    116       1         2.30     0.34E-04  ( 15)    0.56E-02
 COSMO cphf update
 COSMO cphf update
    117       1         2.30     0.29E-04  ( 15)    0.56E-02
 COSMO cphf update
 COSMO cphf update
    118       1         2.31     0.24E-04  ( 15)    0.56E-02
 COSMO cphf update
 COSMO cphf update
    119       1         2.31     0.19E-04  ( 15)    0.56E-02
 COSMO cphf update
 COSMO cphf update
    120       1         2.31     0.16E-04  ( 15)    0.56E-02
 COSMO cphf update
 COSMO cphf update
    121       1         2.30     0.15E-04  ( 15)    0.56E-02
 COSMO cphf update
 COSMO cphf update
    122       1         2.30     0.14E-04  ( 15)    0.56E-02
 COSMO cphf update
 COSMO cphf update
    123       1         2.31     0.15E-04  ( 15)    0.56E-02
 COSMO cphf update
 COSMO cphf update
    124       1         2.31     0.14E-04  ( 15)    0.56E-02
 COSMO cphf update
 COSMO cphf update
    125       1         2.31     0.13E-04  ( 15)    0.56E-02
 COSMO cphf update
 COSMO cphf update
    126       1         2.30     0.12E-04  ( 15)    0.56E-02
 COSMO cphf update
 COSMO cphf update
    127       1         2.31     0.11E-04  ( 15)    0.56E-02
 COSMO cphf update
 COSMO cphf update
    128       1         2.30     0.92E-05  ( 15)    0.56E-02
 COSMO cphf update
 COSMO cphf update
    129       1         2.30     0.74E-05  ( 15)    0.56E-02
 COSMO cphf update
 COSMO cphf update
    130       1         2.31     0.63E-05  ( 15)    0.56E-02
 COSMO cphf update
 COSMO cphf update
    131       1         2.30     0.54E-05  ( 15)    0.56E-02
 COSMO cphf update
 COSMO cphf update
    132       1         2.35     0.49E-05  ( 15)    0.56E-02
 COSMO cphf update
 COSMO cphf update
    133       1         2.32     0.48E-05  ( 15)    0.56E-02
 COSMO cphf update
 COSMO cphf update
    134       1         2.30     0.47E-05  ( 15)    0.56E-02
 COSMO cphf update
 COSMO cphf update
    135       1         2.30     0.48E-05  ( 15)    0.56E-02
 COSMO cphf update
 COSMO cphf update
    136       1         2.32     0.48E-05  ( 15)    0.56E-02
 COSMO cphf update
 COSMO cphf update
    137       1         2.30     0.49E-05  ( 15)    0.56E-02
 COSMO cphf update
 COSMO cphf update
    138       1         2.29     0.49E-05  ( 15)    0.56E-02
 COSMO cphf update
 COSMO cphf update
    139       1         2.31     0.49E-05  ( 15)    0.56E-02
 COSMO cphf update
 COSMO cphf update
    140       1         2.31     0.49E-05  ( 15)    0.56E-02
 COSMO cphf update
 COSMO cphf update
    141       1         2.30     0.49E-05  ( 15)    0.56E-02
 COSMO cphf update
 COSMO cphf update
    142       1         2.30     0.49E-05  ( 15)    0.56E-02
 COSMO cphf update
 COSMO cphf update
    143       1         2.31     0.49E-05  ( 15)    0.56E-02
 COSMO cphf update
 COSMO cphf update
    144       1         2.31     0.49E-05  ( 15)    0.56E-02
 COSMO cphf update
 COSMO cphf update
    145       1         2.30     0.49E-05  ( 15)    0.56E-02
 COSMO cphf update
 COSMO cphf update
    146       1         2.30     0.49E-05  ( 15)    0.56E-02
 COSMO cphf update
 COSMO cphf update
    147       1         2.30     0.49E-05  ( 15)    0.56E-02
 COSMO cphf update
 COSMO cphf update
    148       1         2.32     0.49E-05  ( 15)    0.56E-02
 COSMO cphf update
 COSMO cphf update
    149       1         2.31     0.49E-05  ( 15)    0.56E-02
 COSMO cphf update
 COSMO cphf update
    150       1         2.31     0.49E-05  ( 15)    0.56E-02
 COSMO cphf update
 COSMO cphf update
    151       1         2.30     0.49E-05  ( 15)    0.56E-02
 COSMO cphf update
 COSMO cphf update
    152       1         2.30     0.49E-05  ( 15)    0.56E-02
 COSMO cphf update
 COSMO cphf update
    153       1         2.31     0.49E-05  ( 15)    0.56E-02
 COSMO cphf update
 COSMO cphf update
    154       1         2.31     0.49E-05  ( 15)    0.56E-02
 COSMO cphf update
 COSMO cphf update
    155       1         2.30     0.49E-05  ( 15)    0.56E-02
 COSMO cphf update
 COSMO cphf update
    156       1         2.31     0.49E-05  ( 15)    0.56E-02
 COSMO cphf update
 COSMO cphf update
    157       1         2.33     0.48E-05  ( 15)    0.56E-02
 COSMO cphf update
 COSMO cphf update
    158       1         2.32     0.48E-05  ( 15)    0.56E-02
 COSMO cphf update
 COSMO cphf update
    159       1         2.31     0.48E-05  ( 15)    0.56E-02
 COSMO cphf update
 COSMO cphf update
    160       1         2.31     0.49E-05  ( 15)    0.56E-02
 COSMO cphf update
 COSMO cphf update
    161       1         2.30     0.49E-05  ( 15)    0.56E-02
 COSMO cphf update
 COSMO cphf update
    162       1         2.31     0.49E-05  ( 15)    0.56E-02
 COSMO cphf update
 COSMO cphf update
    163       1         2.31     0.49E-05  ( 15)    0.56E-02
 COSMO cphf update
 COSMO cphf update
    164       1         2.31     0.49E-05  ( 15)    0.56E-02
 COSMO cphf update
 COSMO cphf update
    165       1         2.31     0.49E-05  ( 15)    0.56E-02
 COSMO cphf update
 COSMO cphf update
    166       1         2.30     0.48E-05  ( 15)    0.56E-02
 COSMO cphf update
 COSMO cphf update
    167       1         2.31     0.48E-05  ( 15)    0.56E-02
 COSMO cphf update
 COSMO cphf update
    168       1         2.30     0.49E-05  ( 15)    0.56E-02
 COSMO cphf update
 COSMO cphf update
    169       1         2.29     0.49E-05  ( 15)    0.56E-02
 COSMO cphf update
 COSMO cphf update
    170       1         2.31     0.49E-05  ( 15)    0.56E-02
 COSMO cphf update
 COSMO cphf update
    171       1         2.31     0.46E-05  ( 15)    0.56E-02
 COSMO cphf update
 COSMO cphf update
    172       1         2.31     0.44E-05  ( 15)    0.56E-02
 COSMO cphf update
 COSMO cphf update
    173       1         2.31     0.44E-05  ( 15)    0.56E-02
 COSMO cphf update
 COSMO cphf update
    174       1         2.31     0.41E-05  ( 15)    0.56E-02
 COSMO cphf update
 COSMO cphf update
    175       1         2.31     0.36E-05  ( 15)    0.56E-02
 COSMO cphf update
 COSMO cphf update
    176       1         2.30     0.30E-05  ( 15)    0.56E-02
 COSMO cphf update
 COSMO cphf update
    177       1         2.31     0.26E-05  ( 15)    0.56E-02
 COSMO cphf update
 COSMO cphf update
    178       1         2.31     0.22E-05  ( 15)    0.56E-02
 COSMO cphf update
 COSMO cphf update
    179       1         2.30     0.20E-05  ( 15)    0.56E-02
 COSMO cphf update
 COSMO cphf update
    180       1         2.31     0.19E-05  ( 15)    0.56E-02
 COSMO cphf update
 COSMO cphf update
[...]
 | E_exci (ground to x state)      |     0.23644036  |
 | Correction for fast part of RF  |    -0.00127056  |
 | Correction for update of eq. RF |     0.00000345  |
 +---------------------------------+-----------------+


  +=========================================================================+
  |  Excited state reached by transition:                   model: ADC(2)   |
  |    number, symmetry, multiplicity:   10 a    1                          |
  |    frequency :   0.2438681856 a.u.     6.63599 e.V.     53522.9 rcm     |
  +=========================================================================+

      Total energy of excited state:    -491.1785042283

   +-----------------+-----------------+-----------------+-----------------+
   | operator        | expect. value   | electr. contrib.| diff to gr.st.  |
   +-----------------+-----------------+-----------------+-----------------+
   | xdiplen (unrel) |      2.82649184 |     90.89537173 |     -0.83629636 |
   | xdiplen (relax) |      2.43489057 |     90.50377046 |       ---       |
   | ydiplen (unrel) |      0.00155769 |      0.00154832 |      0.00158660 |
   | ydiplen (relax) |      0.00138671 |      0.00137735 |       ---       |
   | zdiplen (unrel) |      0.12293694 |      2.00278448 |     -0.11506205 |
   | zdiplen (relax) |      0.13581103 |      2.01565857 |       ---       |
   +-----------------+-----------------+-----------------+-----------------+


     Analysis of relaxed properties:
     ===============================


     dipole moment:
     --------------

     x      2.43489057
     y      0.00138671
     z      0.13581103

     | dipole moment | =      2.43867559 a.u. =      6.19849449 debye
 


     Analysis of unrelaxed properties:
     =================================


     dipole moment:
     --------------

     x      2.82649184
     y      0.00155769
     z      0.12293694

     | dipole moment | =      2.82916455 a.u. =      7.19101832 debye
 

 +---------------------------------+-----------------+
 |   Nonequilibrium solvation      |                 |
 +---------------------------------+-----------------+
 |   E_x_(y) is the total free energy of target      |
 |   state x in the reaction field (RF)              |
 |   equilibrated for state y                        |
 +---------------------------------+-----------------+
 | E_x_(y)                         |  -491.18104026  |
 | E_x_(y) (+OCC)                  |  -491.18338869  |
 | Outlying charge correction(OCC) |    -0.00234843  |
 | E_SCF with RF of state y        |  -489.41791830  |
 | E_corr (ground state)           |    -2.00445412  |
 | E_exci (ground to x state)      |     0.24386819  |
 | Correction for fast part of RF  |    -0.00253600  |
 | Correction for update of eq. RF |    -0.00000003  |
 +---------------------------------+-----------------+


  +=========================================================================+
  |  Excited state reached by transition:                   model: ADC(2)   |
  |    number, symmetry, multiplicity:   11 a    1                          |
  |    frequency :   0.2556200932 a.u.     6.95578 e.V.     56102.1 rcm     |
  +=========================================================================+

      Total energy of excited state:    -491.1667523207

   +-----------------+-----------------+-----------------+-----------------+
   | operator        | expect. value   | electr. contrib.| diff to gr.st.  |
   +-----------------+-----------------+-----------------+-----------------+
   | xdiplen (unrel) |      5.30336669 |     93.37224658 |      1.64057850 |
   | xdiplen (relax) |      4.97741768 |     93.04629757 |       ---       |
   | ydiplen (unrel) |     -0.00081298 |     -0.00082234 |     -0.00078406 |
   | ydiplen (relax) |     -0.00069327 |     -0.00070263 |       ---       |
   | zdiplen (unrel) |      0.15473966 |      2.03458720 |     -0.08325933 |
   | zdiplen (relax) |      0.16558110 |      2.04542864 |       ---       |
   +-----------------+-----------------+-----------------+-----------------+


     Analysis of relaxed properties:
     ===============================


     dipole moment:
     --------------

     x      4.97741768
     y     -0.00069327
     z      0.16558110

     | dipole moment | =      4.98017111 a.u. =     12.65833114 debye
 


     Analysis of unrelaxed properties:
     =================================


     dipole moment:
     --------------

     x      5.30336669
     y     -0.00081298
     z      0.15473966

     | dipole moment | =      5.30562374 a.u. =     13.48554914 debye
 

 +---------------------------------+-----------------+
 |   Nonequilibrium solvation      |                 |
 +---------------------------------+-----------------+
 |   E_x_(y) is the total free energy of target      |
 |   state x in the reaction field (RF)              |
 |   equilibrated for state y                        |
 +---------------------------------+-----------------+
 | E_x_(y)                         |  -491.16779324  |
 | E_x_(y) (+OCC)                  |  -491.16803313  |
 | Outlying charge correction(OCC) |    -0.00023989  |
 | E_SCF with RF of state y        |  -489.41791830  |
 | E_corr (ground state)           |    -2.00445412  |
 | E_exci (ground to x state)      |     0.25562009  |
 | Correction for fast part of RF  |    -0.00104822  |
 | Correction for update of eq. RF |     0.00000731  |
 +---------------------------------+-----------------+


  +=========================================================================+
  |  Excited state reached by transition:                   model: ADC(2)   |
  |    number, symmetry, multiplicity:   12 a    1                          |
  |    frequency :   0.2562940852 a.u.     6.97412 e.V.     56250.0 rcm     |
  +=========================================================================+

      Total energy of excited state:    -491.1660783288

   +-----------------+-----------------+-----------------+-----------------+
   | operator        | expect. value   | electr. contrib.| diff to gr.st.  |
   +-----------------+-----------------+-----------------+-----------------+
   | xdiplen (unrel) |      4.74030910 |     92.80918899 |      1.07752090 |
   | xdiplen (relax) |      4.26888865 |     92.33776855 |       ---       |
   | ydiplen (unrel) |     -0.00116138 |     -0.00117074 |     -0.00113246 |
   | ydiplen (relax) |     -0.00104534 |     -0.00105470 |       ---       |
   | zdiplen (unrel) |      0.25342463 |      2.13327217 |      0.01542564 |
   | zdiplen (relax) |      0.25190331 |      2.13175086 |       ---       |
   +-----------------+-----------------+-----------------+-----------------+


     Analysis of relaxed properties:
     ===============================


     dipole moment:
     --------------

     x      4.26888865
     y     -0.00104534
     z      0.25190331

     | dipole moment | =      4.27631462 a.u. =     10.86930655 debye
 


     Analysis of unrelaxed properties:
     =================================


     dipole moment:
     --------------

     x      4.74030910
     y     -0.00116138
     z      0.25342463

     | dipole moment | =      4.74707865 a.u. =     12.06586926 debye
 

 +---------------------------------+-----------------+
 |   Nonequilibrium solvation      |                 |
 +---------------------------------+-----------------+
 |   E_x_(y) is the total free energy of target      |
 |   state x in the reaction field (RF)              |
 |   equilibrated for state y                        |
 +---------------------------------+-----------------+
 | E_x_(y)                         |  -491.16763875  |
 | E_x_(y) (+OCC)                  |  -491.16895766  |
 | Outlying charge correction(OCC) |    -0.00131891  |
 | E_SCF with RF of state y        |  -489.41791830  |
 | E_corr (ground state)           |    -2.00445412  |
 | E_exci (ground to x state)      |     0.25629409  |
 | Correction for fast part of RF  |    -0.00156297  |
 | Correction for update of eq. RF |     0.00000255  |
 +---------------------------------+-----------------+


  +=========================================================================+
  |  Excited state reached by transition:                   model: ADC(2)   |
  |    number, symmetry, multiplicity:   13 a    1                          |
  |    frequency :   0.2563492953 a.u.     6.97562 e.V.     56262.2 rcm     |
  +=========================================================================+

      Total energy of excited state:    -491.1660231187

   +-----------------+-----------------+-----------------+-----------------+
   | operator        | expect. value   | electr. contrib.| diff to gr.st.  |
   +-----------------+-----------------+-----------------+-----------------+
   | xdiplen (unrel) |      4.76994651 |     92.83882641 |      1.10715832 |
   | xdiplen (relax) |      4.19588710 |     92.26476699 |       ---       |
   | ydiplen (unrel) |     -0.00022752 |     -0.00023689 |     -0.00019860 |
   | ydiplen (relax) |     -0.00016031 |     -0.00016967 |       ---       |
   | zdiplen (unrel) |      0.21229393 |      2.09214147 |     -0.02570506 |
   | zdiplen (relax) |      0.21552683 |      2.09537437 |       ---       |
   +-----------------+-----------------+-----------------+-----------------+


     Analysis of relaxed properties:
     ===============================


     dipole moment:
     --------------

     x      4.19588710
     y     -0.00016031
     z      0.21552683

     | dipole moment | =      4.20141885 a.u. =     10.67894052 debye
 


     Analysis of unrelaxed properties:
     =================================


     dipole moment:
     --------------

     x      4.76994651
     y     -0.00022752
     z      0.21229393

     | dipole moment | =      4.77466842 a.u. =     12.13599545 debye
 

 +---------------------------------+-----------------+
 |   Nonequilibrium solvation      |                 |
 +---------------------------------+-----------------+
 |   E_x_(y) is the total free energy of target      |
 |   state x in the reaction field (RF)              |
 |   equilibrated for state y                        |
 +---------------------------------+-----------------+
 | E_x_(y)                         |  -491.16629771  |
 | E_x_(y) (+OCC)                  |  -491.16653138  |
 | Outlying charge correction(OCC) |    -0.00023367  |
 | E_SCF with RF of state y        |  -489.41791830  |
 | E_corr (ground state)           |    -2.00445412  |
 | E_exci (ground to x state)      |     0.25634930  |
 | Correction for fast part of RF  |    -0.00027776  |
 | Correction for update of eq. RF |     0.00000318  |
 +---------------------------------+-----------------+


  +=========================================================================+
  |  Excited state reached by transition:                   model: ADC(2)   |
  |    number, symmetry, multiplicity:   14 a    1                          |
  |    frequency :   0.2707674113 a.u.     7.36796 e.V.     59426.6 rcm     |
  +=========================================================================+

      Total energy of excited state:    -491.1516050027

   +-----------------+-----------------+-----------------+-----------------+
   | operator        | expect. value   | electr. contrib.| diff to gr.st.  |
   +-----------------+-----------------+-----------------+-----------------+
   | xdiplen (unrel) |      3.35390343 |     91.42278333 |     -0.30888476 |
   | xdiplen (relax) |      3.07717361 |     91.14605350 |       ---       |
   | ydiplen (unrel) |      0.00003972 |      0.00003036 |      0.00006864 |
   | ydiplen (relax) |      0.00000873 |     -0.00000064 |       ---       |
   | zdiplen (unrel) |      0.17270197 |      2.05254952 |     -0.06529701 |
   | zdiplen (relax) |      0.17244503 |      2.05229258 |       ---       |
   +-----------------+-----------------+-----------------+-----------------+


     Analysis of relaxed properties:
     ===============================


     dipole moment:
     --------------

     x      3.07717361
     y      0.00000873
     z      0.17244503

     | dipole moment | =      3.08200173 a.u. =      7.83366628 debye
 


     Analysis of unrelaxed properties:
     =================================


     dipole moment:
     --------------

     x      3.35390343
     y      0.00003972
     z      0.17270197

     | dipole moment | =      3.35834695 a.u. =      8.53606569 debye
 

 +---------------------------------+-----------------+
 |   Nonequilibrium solvation      |                 |
 +---------------------------------+-----------------+
 |   E_x_(y) is the total free energy of target      |
 |   state x in the reaction field (RF)              |
 |   equilibrated for state y                        |
 +---------------------------------+-----------------+
 | E_x_(y)                         |  -491.15225933  |
 | E_x_(y) (+OCC)                  |  -491.15240380  |
 | Outlying charge correction(OCC) |    -0.00014447  |
 | E_SCF with RF of state y        |  -489.41791830  |
 | E_corr (ground state)           |    -2.00445412  |
 | E_exci (ground to x state)      |     0.27076741  |
 | Correction for fast part of RF  |    -0.00065480  |
 | Correction for update of eq. RF |     0.00000048  |
 +---------------------------------+-----------------+


  +=========================================================================+
  |  Excited state reached by transition:                   model: ADC(2)   |
  |    number, symmetry, multiplicity:   15 a    1                          |
  |    frequency :   0.2734881882 a.u.     7.44199 e.V.     60023.7 rcm     |
  +=========================================================================+

      Total energy of excited state:    -491.1488842257

   +-----------------+-----------------+-----------------+-----------------+
   | operator        | expect. value   | electr. contrib.| diff to gr.st.  |
   +-----------------+-----------------+-----------------+-----------------+
   | xdiplen (unrel) |      5.36827376 |     93.43715366 |      1.70548557 |
   | xdiplen (relax) |      4.75941924 |     92.82829913 |       ---       |
   | ydiplen (unrel) |     -0.00538689 |     -0.00539626 |     -0.00535797 |
   | ydiplen (relax) |     -0.00488100 |     -0.00489036 |       ---       |
   | zdiplen (unrel) |      0.11579877 |      1.99564632 |     -0.12220021 |
   | zdiplen (relax) |      0.12951409 |      2.00936163 |       ---       |
   +-----------------+-----------------+-----------------+-----------------+


     Analysis of relaxed properties:
     ===============================


     dipole moment:
     --------------

     x      4.75941924
     y     -0.00488100
     z      0.12951409

     | dipole moment | =      4.76118359 a.u. =     12.10172044 debye
 


     Analysis of unrelaxed properties:
     =================================


     dipole moment:
     --------------

     x      5.36827376
     y     -0.00538689
     z      0.11579877

     | dipole moment | =      5.36952527 a.u. =     13.64797059 debye
 

 +---------------------------------+-----------------+
 |   Nonequilibrium solvation      |                 |
 +---------------------------------+-----------------+
 |   E_x_(y) is the total free energy of target      |
 |   state x in the reaction field (RF)              |
 |   equilibrated for state y                        |
 +---------------------------------+-----------------+
 | E_x_(y)                         |  -491.15147666  |
 | E_x_(y) (+OCC)                  |  -491.15313608  |
 | Outlying charge correction(OCC) |    -0.00165941  |
 | E_SCF with RF of state y        |  -489.41791830  |
 | E_corr (ground state)           |    -2.00445412  |
 | E_exci (ground to x state)      |     0.27348819  |
 | Correction for fast part of RF  |    -0.00259816  |
 | Correction for update of eq. RF |     0.00000572  |
 +---------------------------------+-----------------+
 Exporting excited state densities


 =============================================
 | SUMMARY OF RELAXED EXCITATIONS WITH COSMO |
 =============================================

 Explanation of the quantities below:

       E(diff)_x = E_x - E*_y
       E(exci)_x = E_x - E_gs

  E_x  : noneq.        energy of state x
  E*_y : eq.           energy of state y
  E_gs : noneq. or eq. energy of groundstate
  OCC  : outlying charge correction

 The * in column 'sym' marks the equilibrated state

 +=================================================================================+
 | sym | multi | state | COSMO-ADC(2) energy differences                           |
 |     |       |       +-----------------------------------------------------------+
 |     |       |       | E(Total)/au. |  E(diff)/eV  |  E(exci)/eV  |E(exc(OCC))/eV|
 +=================================================================================+
 |*a   |   1   |   0   | -491.4223724 |            - |            - |            - |
 +-----+-------+-------+--------------+--------------+--------------+--------------+
 | a   |   1   |   1   | -491.2851833 |      3.73311 |      3.73311 |      3.73311 |
 +-----+-------+-------+--------------+--------------+--------------+--------------+
 | a   |   1   |   2   | -491.2850989 |      3.73540 |      3.73540 |      3.72961 |
 +-----+-------+-------+--------------+--------------+--------------+--------------+
 | a   |   1   |   3   | -491.2565513 |      4.51222 |      4.51222 |      4.51170 |
 +-----+-------+-------+--------------+--------------+--------------+--------------+
 | a   |   1   |   4   | -491.2528833 |      4.61203 |      4.61203 |      4.61143 |
 +-----+-------+-------+--------------+--------------+--------------+--------------+
 | a   |   1   |   5   | -491.2271399 |      5.31255 |      5.31255 |      5.30993 |
 +-----+-------+-------+--------------+--------------+--------------+--------------+
 | a   |   1   |   6   | -491.2120333 |      5.72362 |      5.72362 |      5.70942 |
 +-----+-------+-------+--------------+--------------+--------------+--------------+
 | a   |   1   |   7   | -491.2093235 |      5.79736 |      5.79736 |      5.79653 |
 +-----+-------+-------+--------------+--------------+--------------+--------------+
 | a   |   1   |   8   | -491.2000814 |      6.04885 |      6.04885 |      6.04861 |
 +-----+-------+-------+--------------+--------------+--------------+--------------+
 | a   |   1   |   9   | -491.1871992 |      6.39939 |      6.39939 |      6.38890 |
 +-----+-------+-------+--------------+--------------+--------------+--------------+
 | a   |   1   |  10   | -491.1810403 |      6.56698 |      6.56698 |      6.50902 |
 +-----+-------+-------+--------------+--------------+--------------+--------------+
 | a   |   1   |  11   | -491.1677932 |      6.92745 |      6.92745 |      6.92686 |
 +-----+-------+-------+--------------+--------------+--------------+--------------+
 | a   |   1   |  12   | -491.1676388 |      6.93166 |      6.93166 |      6.90171 |
 +-----+-------+-------+--------------+--------------+--------------+--------------+
 | a   |   1   |  13   | -491.1662977 |      6.96815 |      6.96815 |      6.96773 |
 +-----+-------+-------+--------------+--------------+--------------+--------------+
 | a   |   1   |  14   | -491.1522593 |      7.35015 |      7.35015 |      7.35216 |
 +-----+-------+-------+--------------+--------------+--------------+--------------+
 | a   |   1   |  15   | -491.1514767 |      7.37145 |      7.37145 |      7.33223 |
 +=================================================================================+



    ------------------------------------------------------------------------
         total  cpu-time : 21 hours 13 minutes and  4 seconds
         total wall-time :   3 days  0 hours  7 minutes and 30 seconds
    ------------------------------------------------------------------------


   ****  ricc2 : all done  ****


    2023-04-03 21:52:34.091 

